TITLE = "Example: FE-Volume Tetrahedral Data"
VARIABLES = "X", "Y", "Z", "C", "U", "V", "W"
ZONE N = 13, E = 20, DATAPACKING = POINT, ZONETYPE = FETETRAHEDRON
 0    0    0      // vertex number 0
 1    0    0.1    // vertex number 1
 1.1  1    0.1    // vertex number 2
 0    1    0.1    // vertex number 3
 -0.1 -0.1  1      // vertex number 4
 1.3  0    1.2    // vertex number 5
 1.4  1.1  1.3    // vertex number 6
 0    1    1.1    // vertex number 7
 0 1 5 4
 0 3 2 1
 3 7 6 2
 4 5 6 7
